GaN222.lammps (written by ASE) 

32 	 atoms 
2  atom types
0.0      6.3799999999999999  xlo xhi
0.0      5.5252420761447176  ylo yhi
0.0                  10.378  zlo zhi
    -3.1899999999999999                       0                       0  xy xz yz

Masses

1  69.723
2  14.007

Atoms 

     1   1 -7.8825834748386456e-17      1.8417473587148705      5.2002123854231019
     2   1      1.5950000000000031     0.92087367935741593      2.6057123854231015
     3   2  1.5598633495983446e-15      1.8417473587148681      1.9606076145771836
     4   2      1.5950000000000031     0.92087367935741593      4.5551076145771834
     5   1 -7.8825834748386456e-17      1.8417473587148705    0.011212385423102302
     6   1      1.5950000000000031     0.92087367935741593       7.794712385423102
     7   2  1.5598633495983446e-15      1.8417473587148681      7.1496076145771834
     8   2      1.5950000000000031     0.92087367935741593      9.7441076145771834
     9   1                  -1.595      4.6043683967872298      5.2002123854231019
    10   1  3.0120350658080492e-15      3.6834947174297747      2.6057123854231015
    11   2     -1.5949999999999984      4.6043683967872271      1.9606076145771836
    12   2  3.0120350658080492e-15      3.6834947174297747      4.5551076145771834
    13   1                  -1.595      4.6043683967872298    0.011212385423102302
    14   1  3.0120350658080492e-15      3.6834947174297747       7.794712385423102
    15   2     -1.5949999999999984      4.6043683967872271      7.1496076145771834
    16   2  3.0120350658080492e-15      3.6834947174297747      9.7441076145771834
    17   1      3.1899999999999995      1.8417473587148705      5.2002123854231019
    18   1      4.7850000000000037     0.92087367935741593      2.6057123854231015
    19   2      3.1900000000000031      1.8417473587148681      1.9606076145771836
    20   2      4.7850000000000037     0.92087367935741593      4.5551076145771834
    21   1      3.1899999999999995      1.8417473587148705    0.011212385423102302
    22   1      4.7850000000000037     0.92087367935741593       7.794712385423102
    23   2      3.1900000000000031      1.8417473587148681      7.1496076145771834
    24   2      4.7850000000000037     0.92087367935741593      9.7441076145771834
    25   1      1.5949999999999998      4.6043683967872298      5.2002123854231019
    26   1      3.1900000000000035      3.6834947174297747      2.6057123854231015
    27   2      1.5950000000000011      4.6043683967872271      1.9606076145771836
    28   2      3.1900000000000035      3.6834947174297747      4.5551076145771834
    29   1      1.5949999999999998      4.6043683967872298    0.011212385423102302
    30   1      3.1900000000000035      3.6834947174297747       7.794712385423102
    31   2      1.5950000000000011      4.6043683967872271      7.1496076145771834
    32   2      3.1900000000000035      3.6834947174297747      9.7441076145771834
