GaN444.lammps (written by ASE) 

256 	 atoms 
2  atom types
0.0                   12.76  xlo xhi
0.0      11.050484152289435  ylo yhi
0.0                  20.756  zlo zhi
    -6.3799999999999999                       0                       0  xy xz yz

Masses

1  69.723
2  14.007

Atoms 

     1   1 -7.8825834748386456e-17      1.8417473587148705      5.2002123854231019
     2   1      1.5950000000000031     0.92087367935741593      2.6057123854231015
     3   2  1.5598633495983446e-15      1.8417473587148681      1.9606076145771836
     4   2      1.5950000000000031     0.92087367935741593      4.5551076145771834
     5   1 -7.8825834748386456e-17      1.8417473587148705      10.389212385423102
     6   1      1.5950000000000031     0.92087367935741593       7.794712385423102
     7   2  1.5598633495983446e-15      1.8417473587148681      7.1496076145771834
     8   2      1.5950000000000031     0.92087367935741593      9.7441076145771834
     9   1 -7.8825834748386456e-17      1.8417473587148705      15.578212385423102
    10   1      1.5950000000000031     0.92087367935741593      12.983712385423102
    11   2  1.5598633495983446e-15      1.8417473587148681      12.338607614577183
    12   2      1.5950000000000031     0.92087367935741593      14.933107614577183
    13   1 -7.8825834748386456e-17      1.8417473587148705    0.011212385423100676
    14   1      1.5950000000000031     0.92087367935741593        18.1727123854231
    15   2  1.5598633495983446e-15      1.8417473587148681      17.527607614577185
    16   2      1.5950000000000031     0.92087367935741593      20.122107614577182
    17   1                  -1.595      4.6043683967872298      5.2002123854231019
    18   1  3.0120350658080492e-15      3.6834947174297747      2.6057123854231015
    19   2     -1.5949999999999984      4.6043683967872271      1.9606076145771836
    20   2  3.0120350658080492e-15      3.6834947174297747      4.5551076145771834
    21   1                  -1.595      4.6043683967872298      10.389212385423102
    22   1  3.0120350658080492e-15      3.6834947174297747       7.794712385423102
    23   2     -1.5949999999999984      4.6043683967872271      7.1496076145771834
    24   2  3.0120350658080492e-15      3.6834947174297747      9.7441076145771834
    25   1                  -1.595      4.6043683967872298      15.578212385423102
    26   1  3.0120350658080492e-15      3.6834947174297747      12.983712385423102
    27   2     -1.5949999999999984      4.6043683967872271      12.338607614577183
    28   2  3.0120350658080492e-15      3.6834947174297747      14.933107614577183
    29   1                  -1.595      4.6043683967872298    0.011212385423100676
    30   1  3.0120350658080492e-15      3.6834947174297747        18.1727123854231
    31   2     -1.5949999999999984      4.6043683967872271      17.527607614577185
    32   2  3.0120350658080492e-15      3.6834947174297747      20.122107614577182
    33   1     -3.1899999999999995      7.3669894348595886      5.2002123854231019
    34   1     -1.5949999999999966      6.4461157555021327      2.6057123854231015
    35   2     -3.1899999999999982       7.366989434859585      1.9606076145771836
    36   2     -1.5949999999999966      6.4461157555021327      4.5551076145771834
    37   1     -3.1899999999999995      7.3669894348595886      10.389212385423102
    38   1     -1.5949999999999966      6.4461157555021327       7.794712385423102
    39   2     -3.1899999999999982       7.366989434859585      7.1496076145771834
    40   2     -1.5949999999999966      6.4461157555021327      9.7441076145771834
    41   1     -3.1899999999999995      7.3669894348595886      15.578212385423102
    42   1     -1.5949999999999966      6.4461157555021327      12.983712385423102
    43   2     -3.1899999999999982       7.366989434859585      12.338607614577183
    44   2     -1.5949999999999966      6.4461157555021327      14.933107614577183
    45   1     -3.1899999999999995      7.3669894348595886    0.011212385423100676
    46   1     -1.5949999999999966      6.4461157555021327        18.1727123854231
    47   2     -3.1899999999999982       7.366989434859585      17.527607614577185
    48   2     -1.5949999999999966      6.4461157555021327      20.122107614577182
    49   1     -4.7850000000000001      10.129610472931946      5.2002123854231019
    50   1     -3.1899999999999968      9.2087367935744933      2.6057123854231015
    51   2     -4.7849999999999984      10.129610472931942      1.9606076145771836
    52   2     -3.1899999999999968      9.2087367935744933      4.5551076145771834
    53   1     -4.7850000000000001      10.129610472931946      10.389212385423102
    54   1     -3.1899999999999968      9.2087367935744933       7.794712385423102
    55   2     -4.7849999999999984      10.129610472931942      7.1496076145771834
    56   2     -3.1899999999999968      9.2087367935744933      9.7441076145771834
    57   1     -4.7850000000000001      10.129610472931946      15.578212385423102
    58   1     -3.1899999999999968      9.2087367935744933      12.983712385423102
    59   2     -4.7849999999999984      10.129610472931942      12.338607614577183
    60   2     -3.1899999999999968      9.2087367935744933      14.933107614577183
    61   1     -4.7850000000000001      10.129610472931946    0.011212385423100676
    62   1     -3.1899999999999968      9.2087367935744933        18.1727123854231
    63   2     -4.7849999999999984      10.129610472931942      17.527607614577185
    64   2     -3.1899999999999968      9.2087367935744933      20.122107614577182
    65   1      3.1899999999999995      1.8417473587148705      5.2002123854231019
    66   1      4.7850000000000037     0.92087367935741593      2.6057123854231015
    67   2      3.1900000000000031      1.8417473587148681      1.9606076145771836
    68   2      4.7850000000000037     0.92087367935741593      4.5551076145771834
    69   1      3.1899999999999995      1.8417473587148705      10.389212385423102
    70   1      4.7850000000000037     0.92087367935741593       7.794712385423102
    71   2      3.1900000000000031      1.8417473587148681      7.1496076145771834
    72   2      4.7850000000000037     0.92087367935741593      9.7441076145771834
    73   1      3.1899999999999995      1.8417473587148705      15.578212385423102
    74   1      4.7850000000000037     0.92087367935741593      12.983712385423102
    75   2      3.1900000000000031      1.8417473587148681      12.338607614577183
    76   2      4.7850000000000037     0.92087367935741593      14.933107614577183
    77   1      3.1899999999999995      1.8417473587148705    0.011212385423100676
    78   1      4.7850000000000037     0.92087367935741593        18.1727123854231
    79   2      3.1900000000000031      1.8417473587148681      17.527607614577185
    80   2      4.7850000000000037     0.92087367935741593      20.122107614577182
    81   1      1.5949999999999998      4.6043683967872298      5.2002123854231019
    82   1      3.1900000000000035      3.6834947174297747      2.6057123854231015
    83   2      1.5950000000000011      4.6043683967872271      1.9606076145771836
    84   2      3.1900000000000035      3.6834947174297747      4.5551076145771834
    85   1      1.5949999999999998      4.6043683967872298      10.389212385423102
    86   1      3.1900000000000035      3.6834947174297747       7.794712385423102
    87   2      1.5950000000000011      4.6043683967872271      7.1496076145771834
    88   2      3.1900000000000035      3.6834947174297747      9.7441076145771834
    89   1      1.5949999999999998      4.6043683967872298      15.578212385423102
    90   1      3.1900000000000035      3.6834947174297747      12.983712385423102
    91   2      1.5950000000000011      4.6043683967872271      12.338607614577183
    92   2      3.1900000000000035      3.6834947174297747      14.933107614577183
    93   1      1.5949999999999998      4.6043683967872298    0.011212385423100676
    94   1      3.1900000000000035      3.6834947174297747        18.1727123854231
    95   2      1.5950000000000011      4.6043683967872271      17.527607614577185
    96   2      3.1900000000000035      3.6834947174297747      20.122107614577182
    97   1  1.1213252548714079e-15      7.3669894348595886      5.2002123854231019
    98   1      1.5950000000000037      6.4461157555021327      2.6057123854231015
    99   2  1.4699352846037069e-15       7.366989434859585      1.9606076145771836
   100   2      1.5950000000000037      6.4461157555021327      4.5551076145771834
   101   1  1.1213252548714079e-15      7.3669894348595886      10.389212385423102
   102   1      1.5950000000000037      6.4461157555021327       7.794712385423102
   103   2  1.4699352846037069e-15       7.366989434859585      7.1496076145771834
   104   2      1.5950000000000037      6.4461157555021327      9.7441076145771834
   105   1  1.1213252548714079e-15      7.3669894348595886      15.578212385423102
   106   1      1.5950000000000037      6.4461157555021327      12.983712385423102
   107   2  1.4699352846037069e-15       7.366989434859585      12.338607614577183
   108   2      1.5950000000000037      6.4461157555021327      14.933107614577183
   109   1  1.1213252548714079e-15      7.3669894348595886    0.011212385423100676
   110   1      1.5950000000000037      6.4461157555021327        18.1727123854231
   111   2  1.4699352846037069e-15       7.366989434859585      17.527607614577185
   112   2      1.5950000000000037      6.4461157555021327      20.122107614577182
   113   1                  -1.595      10.129610472931946      5.2002123854231019
   114   1  3.1019631308026871e-15      9.2087367935744933      2.6057123854231015
   115   2     -1.5949999999999978      10.129610472931942      1.9606076145771836
   116   2  3.1019631308026871e-15      9.2087367935744933      4.5551076145771834
   117   1                  -1.595      10.129610472931946      10.389212385423102
   118   1  3.1019631308026871e-15      9.2087367935744933       7.794712385423102
   119   2     -1.5949999999999978      10.129610472931942      7.1496076145771834
   120   2  3.1019631308026871e-15      9.2087367935744933      9.7441076145771834
   121   1                  -1.595      10.129610472931946      15.578212385423102
   122   1  3.1019631308026871e-15      9.2087367935744933      12.983712385423102
   123   2     -1.5949999999999978      10.129610472931942      12.338607614577183
   124   2  3.1019631308026871e-15      9.2087367935744933      14.933107614577183
   125   1                  -1.595      10.129610472931946    0.011212385423100676
   126   1  3.1019631308026871e-15      9.2087367935744933        18.1727123854231
   127   2     -1.5949999999999978      10.129610472931942      17.527607614577185
   128   2  3.1019631308026871e-15      9.2087367935744933      20.122107614577182
   129   1      6.3800000000000008      1.8417473587148705      5.2002123854231019
   130   1      7.9750000000000032     0.92087367935741593      2.6057123854231015
   131   2      6.3800000000000026      1.8417473587148681      1.9606076145771836
   132   2      7.9750000000000032     0.92087367935741593      4.5551076145771834
   133   1      6.3800000000000008      1.8417473587148705      10.389212385423102
   134   1      7.9750000000000032     0.92087367935741593       7.794712385423102
   135   2      6.3800000000000026      1.8417473587148681      7.1496076145771834
   136   2      7.9750000000000032     0.92087367935741593      9.7441076145771834
   137   1      6.3800000000000008      1.8417473587148705      15.578212385423102
   138   1      7.9750000000000032     0.92087367935741593      12.983712385423102
   139   2      6.3800000000000026      1.8417473587148681      12.338607614577183
   140   2      7.9750000000000032     0.92087367935741593      14.933107614577183
   141   1      6.3800000000000008      1.8417473587148705    0.011212385423100676
   142   1      7.9750000000000032     0.92087367935741593        18.1727123854231
   143   2      6.3800000000000026      1.8417473587148681      17.527607614577185
   144   2      7.9750000000000032     0.92087367935741593      20.122107614577182
   145   1       4.785000000000001      4.6043683967872298      5.2002123854231019
   146   1      6.3800000000000026      3.6834947174297747      2.6057123854231015
   147   2      4.7850000000000028      4.6043683967872271      1.9606076145771836
   148   2      6.3800000000000026      3.6834947174297747      4.5551076145771834
   149   1       4.785000000000001      4.6043683967872298      10.389212385423102
   150   1      6.3800000000000026      3.6834947174297747       7.794712385423102
   151   2      4.7850000000000028      4.6043683967872271      7.1496076145771834
   152   2      6.3800000000000026      3.6834947174297747      9.7441076145771834
   153   1       4.785000000000001      4.6043683967872298      15.578212385423102
   154   1      6.3800000000000026      3.6834947174297747      12.983712385423102
   155   2      4.7850000000000028      4.6043683967872271      12.338607614577183
   156   2      6.3800000000000026      3.6834947174297747      14.933107614577183
   157   1       4.785000000000001      4.6043683967872298    0.011212385423100676
   158   1      6.3800000000000026      3.6834947174297747        18.1727123854231
   159   2      4.7850000000000028      4.6043683967872271      17.527607614577185
   160   2      6.3800000000000026      3.6834947174297747      20.122107614577182
   161   1      3.1900000000000008      7.3669894348595886      5.2002123854231019
   162   1      4.7850000000000037      6.4461157555021327      2.6057123854231015
   163   2      3.1900000000000008       7.366989434859585      1.9606076145771836
   164   2      4.7850000000000037      6.4461157555021327      4.5551076145771834
   165   1      3.1900000000000008      7.3669894348595886      10.389212385423102
   166   1      4.7850000000000037      6.4461157555021327       7.794712385423102
   167   2      3.1900000000000008       7.366989434859585      7.1496076145771834
   168   2      4.7850000000000037      6.4461157555021327      9.7441076145771834
   169   1      3.1900000000000008      7.3669894348595886      15.578212385423102
   170   1      4.7850000000000037      6.4461157555021327      12.983712385423102
   171   2      3.1900000000000008       7.366989434859585      12.338607614577183
   172   2      4.7850000000000037      6.4461157555021327      14.933107614577183
   173   1      3.1900000000000008      7.3669894348595886    0.011212385423100676
   174   1      4.7850000000000037      6.4461157555021327        18.1727123854231
   175   2      3.1900000000000008       7.366989434859585      17.527607614577185
   176   2      4.7850000000000037      6.4461157555021327      20.122107614577182
   177   1      1.5949999999999995      10.129610472931946      5.2002123854231019
   178   1      3.1900000000000044      9.2087367935744933      2.6057123854231015
   179   2      1.5950000000000017      10.129610472931942      1.9606076145771836
   180   2      3.1900000000000044      9.2087367935744933      4.5551076145771834
   181   1      1.5949999999999995      10.129610472931946      10.389212385423102
   182   1      3.1900000000000044      9.2087367935744933       7.794712385423102
   183   2      1.5950000000000017      10.129610472931942      7.1496076145771834
   184   2      3.1900000000000044      9.2087367935744933      9.7441076145771834
   185   1      1.5949999999999995      10.129610472931946      15.578212385423102
   186   1      3.1900000000000044      9.2087367935744933      12.983712385423102
   187   2      1.5950000000000017      10.129610472931942      12.338607614577183
   188   2      3.1900000000000044      9.2087367935744933      14.933107614577183
   189   1      1.5949999999999995      10.129610472931946    0.011212385423100676
   190   1      3.1900000000000044      9.2087367935744933        18.1727123854231
   191   2      1.5950000000000017      10.129610472931942      17.527607614577185
   192   2      3.1900000000000044      9.2087367935744933      20.122107614577182
   193   1      9.5700000000000003      1.8417473587148705      5.2002123854231019
   194   1      11.165000000000004     0.92087367935741593      2.6057123854231015
   195   2      9.5700000000000021      1.8417473587148681      1.9606076145771836
   196   2      11.165000000000004     0.92087367935741593      4.5551076145771834
   197   1      9.5700000000000003      1.8417473587148705      10.389212385423102
   198   1      11.165000000000004     0.92087367935741593       7.794712385423102
   199   2      9.5700000000000021      1.8417473587148681      7.1496076145771834
   200   2      11.165000000000004     0.92087367935741593      9.7441076145771834
   201   1      9.5700000000000003      1.8417473587148705      15.578212385423102
   202   1      11.165000000000004     0.92087367935741593      12.983712385423102
   203   2      9.5700000000000021      1.8417473587148681      12.338607614577183
   204   2      11.165000000000004     0.92087367935741593      14.933107614577183
   205   1      9.5700000000000003      1.8417473587148705    0.011212385423100676
   206   1      11.165000000000004     0.92087367935741593        18.1727123854231
   207   2      9.5700000000000021      1.8417473587148681      17.527607614577185
   208   2      11.165000000000004     0.92087367935741593      20.122107614577182
   209   1      7.9750000000000005      4.6043683967872298      5.2002123854231019
   210   1      9.5700000000000056      3.6834947174297747      2.6057123854231015
   211   2      7.9750000000000023      4.6043683967872271      1.9606076145771836
   212   2      9.5700000000000056      3.6834947174297747      4.5551076145771834
   213   1      7.9750000000000005      4.6043683967872298      10.389212385423102
   214   1      9.5700000000000056      3.6834947174297747       7.794712385423102
   215   2      7.9750000000000023      4.6043683967872271      7.1496076145771834
   216   2      9.5700000000000056      3.6834947174297747      9.7441076145771834
   217   1      7.9750000000000005      4.6043683967872298      15.578212385423102
   218   1      9.5700000000000056      3.6834947174297747      12.983712385423102
   219   2      7.9750000000000023      4.6043683967872271      12.338607614577183
   220   2      9.5700000000000056      3.6834947174297747      14.933107614577183
   221   1      7.9750000000000005      4.6043683967872298    0.011212385423100676
   222   1      9.5700000000000056      3.6834947174297747        18.1727123854231
   223   2      7.9750000000000023      4.6043683967872271      17.527607614577185
   224   2      9.5700000000000056      3.6834947174297747      20.122107614577182
   225   1      6.3800000000000017      7.3669894348595886      5.2002123854231019
   226   1       7.975000000000005      6.4461157555021327      2.6057123854231015
   227   2      6.3800000000000026       7.366989434859585      1.9606076145771836
   228   2       7.975000000000005      6.4461157555021327      4.5551076145771834
   229   1      6.3800000000000017      7.3669894348595886      10.389212385423102
   230   1       7.975000000000005      6.4461157555021327       7.794712385423102
   231   2      6.3800000000000026       7.366989434859585      7.1496076145771834
   232   2       7.975000000000005      6.4461157555021327      9.7441076145771834
   233   1      6.3800000000000017      7.3669894348595886      15.578212385423102
   234   1       7.975000000000005      6.4461157555021327      12.983712385423102
   235   2      6.3800000000000026       7.366989434859585      12.338607614577183
   236   2       7.975000000000005      6.4461157555021327      14.933107614577183
   237   1      6.3800000000000017      7.3669894348595886    0.011212385423100676
   238   1       7.975000000000005      6.4461157555021327        18.1727123854231
   239   2      6.3800000000000026       7.366989434859585      17.527607614577185
   240   2       7.975000000000005      6.4461157555021327      20.122107614577182
   241   1      4.7849999999999993      10.129610472931946      5.2002123854231019
   242   1      6.3800000000000034      9.2087367935744933      2.6057123854231015
   243   2       4.785000000000001      10.129610472931942      1.9606076145771836
   244   2      6.3800000000000034      9.2087367935744933      4.5551076145771834
   245   1      4.7849999999999993      10.129610472931946      10.389212385423102
   246   1      6.3800000000000034      9.2087367935744933       7.794712385423102
   247   2       4.785000000000001      10.129610472931942      7.1496076145771834
   248   2      6.3800000000000034      9.2087367935744933      9.7441076145771834
   249   1      4.7849999999999993      10.129610472931946      15.578212385423102
   250   1      6.3800000000000034      9.2087367935744933      12.983712385423102
   251   2       4.785000000000001      10.129610472931942      12.338607614577183
   252   2      6.3800000000000034      9.2087367935744933      14.933107614577183
   253   1      4.7849999999999993      10.129610472931946    0.011212385423100676
   254   1      6.3800000000000034      9.2087367935744933        18.1727123854231
   255   2       4.785000000000001      10.129610472931942      17.527607614577185
   256   2      6.3800000000000034      9.2087367935744933      20.122107614577182
